# vtk DataFile Version 1.0
Cube
ASCII

DATASET POLYDATA
POINTS 1 float
5.663820 5.663775 9.662430
LINES 0 0
POINT_DATA 1
SCALARS my_scalars float
LOOKUP_TABLE default
0
VECTORS vectors float
0.25 0 0
