# vtk DataFile Version 1.0
Cube
ASCII

DATASET POLYDATA
POINTS 4 float
5.000000 0.000000 0.000000
5.000000 0.000000 10.000000
9.999992 10.000004 0.000000
9.999992 10.000004 10.000000
LINES 0 0
POINT_DATA 4
SCALARS my_scalars float
LOOKUP_TABLE default
0
0
0
0
VECTORS vectors float
0.25 0 0
0.25 0 0
0.25 0 0
0.25 0 0
