# vtk DataFile Version 1.0
Cube
ASCII

DATASET POLYDATA
POINTS 10 float
6.249994 7.500003 2.500000
4.999996 5.000002 7.500000
0.000000 0.000000 0.000000
0.000000 0.000000 10.000000
4.999992 10.000004 0.000000
4.999992 10.000004 10.000000
10.000000 0.000000 0.000000
10.000000 0.000000 10.000000
14.999992 10.000004 0.000000
14.999992 10.000004 10.000000
POINT_DATA 10
SCALARS my_scalars float
LOOKUP_TABLE default
2
2
1.09
1.09
1.09
1.09
1.09
1.09
1.09
1.09
VECTORS vectors float
0.4375 0 0
0.4375 0 0
0.25 0 0
0.25 0 0
0.25 0 0
0.25 0 0
0.25 0 0
0.25 0 0
0.25 0 0
0.25 0 0
